ITEM: TIMESTEP
0
ITEM: NUMBER OF ATOMS
2048
ITEM: BOX BOUNDS pp pp pp
0.0000000000000000e+00 1.3436769531060058e+01
0.0000000000000000e+00 1.3436769531060058e+01
0.0000000000000000e+00 1.3436769531060058e+01
ITEM: ATOMS id type xs ys zs
1 1 0 0 0
3 1 0.0625 0 0.0625
5 1 0.125 0 0
7 1 0.1875 0 0.0625
9 1 0.25 0 0
11 1 0.3125 0 0.0625
13 1 0.375 0 0
15 1 0.4375 0 0.0625
17 1 0.5 0 0
19 1 0.5625 0 0.0625
21 1 0.625 0 0
23 1 0.6875 0 0.0625
25 1 0.75 0 0
27 1 0.8125 0 0.0625
29 1 0.875 0 0
31 1 0.9375 0 0.0625
4 1 0 0.0625 0.0625
2 1 0.0625 0.0625 0
8 1 0.125 0.0625 0.0625
6 1 0.1875 0.0625 0
12 1 0.25 0.0625 0.0625
10 1 0.3125 0.0625 0
16 1 0.375 0.0625 0.0625
14 1 0.4375 0.0625 0
20 1 0.5 0.0625 0.0625
18 1 0.5625 0.0625 0
24 1 0.625 0.0625 0.0625
22 1 0.6875 0.0625 0
28 1 0.75 0.0625 0.0625
26 1 0.8125 0.0625 0
32 1 0.875 0.0625 0.0625
30 1 0.9375 0.0625 0
33 1 0 0.125 0
35 1 0.0625 0.125 0.0625
37 1 0.125 0.125 0
39 1 0.1875 0.125 0.0625
41 1 0.25 0.125 0
43 1 0.3125 0.125 0.0625
45 1 0.375 0.125 0
47 1 0.4375 0.125 0.0625
49 1 0.5 0.125 0
51 1 0.5625 0.125 0.0625
53 1 0.625 0.125 0
55 1 0.6875 0.125 0.0625
57 1 0.75 0.125 0
59 1 0.8125 0.125 0.0625
61 1 0.875 0.125 0
63 1 0.9375 0.125 0.0625
36 1 0 0.1875 0.0625
34 1 0.0625 0.1875 0
40 1 0.125 0.1875 0.0625
38 1 0.1875 0.1875 0
44 1 0.25 0.1875 0.0625
42 1 0.3125 0.1875 0
48 1 0.375 0.1875 0.0625
46 1 0.4375 0.1875 0
52 1 0.5 0.1875 0.0625
50 1 0.5625 0.1875 0
56 1 0.625 0.1875 0.0625
54 1 0.6875 0.1875 0
60 1 0.75 0.1875 0.0625
58 1 0.8125 0.1875 0
64 1 0.875 0.1875 0.0625
62 1 0.9375 0.1875 0
65 1 0 0.25 0
67 1 0.0625 0.25 0.0625
69 1 0.125 0.25 0
71 1 0.1875 0.25 0.0625
73 1 0.25 0.25 0
75 1 0.3125 0.25 0.0625
77 1 0.375 0.25 0
79 1 0.4375 0.25 0.0625
81 1 0.5 0.25 0
83 1 0.5625 0.25 0.0625
85 1 0.625 0.25 0
87 1 0.6875 0.25 0.0625
89 1 0.75 0.25 0
91 1 0.8125 0.25 0.0625
93 1 0.875 0.25 0
95 1 0.9375 0.25 0.0625
68 1 0 0.3125 0.0625
66 1 0.0625 0.3125 0
72 1 0.125 0.3125 0.0625
70 1 0.1875 0.3125 0
76 1 0.25 0.3125 0.0625
74 1 0.3125 0.3125 0
80 1 0.375 0.3125 0.0625
78 1 0.4375 0.3125 0
84 1 0.5 0.3125 0.0625
82 1 0.5625 0.3125 0
88 1 0.625 0.3125 0.0625
86 1 0.6875 0.3125 0
92 1 0.75 0.3125 0.0625
90 1 0.8125 0.3125 0
96 1 0.875 0.3125 0.0625
94 1 0.9375 0.3125 0
97 1 0 0.375 0
99 1 0.0625 0.375 0.0625
101 1 0.125 0.375 0
103 1 0.1875 0.375 0.0625
105 1 0.25 0.375 0
107 1 0.3125 0.375 0.0625
109 1 0.375 0.375 0
111 1 0.4375 0.375 0.0625
113 1 0.5 0.375 0
115 1 0.5625 0.375 0.0625
117 1 0.625 0.375 0
119 1 0.6875 0.375 0.0625
121 1 0.75 0.375 0
123 1 0.8125 0.375 0.0625
125 1 0.875 0.375 0
127 1 0.9375 0.375 0.0625
100 1 0 0.4375 0.0625
98 1 0.0625 0.4375 0
104 1 0.125 0.4375 0.0625
102 1 0.1875 0.4375 0
108 1 0.25 0.4375 0.0625
106 1 0.3125 0.4375 0
112 1 0.375 0.4375 0.0625
110 1 0.4375 0.4375 0
116 1 0.5 0.4375 0.0625
114 1 0.5625 0.4375 0
120 1 0.625 0.4375 0.0625
118 1 0.6875 0.4375 0
124 1 0.75 0.4375 0.0625
122 1 0.8125 0.4375 0
128 1 0.875 0.4375 0.0625
126 1 0.9375 0.4375 0
129 1 0 0 0.125
133 1 0.125 0 0.125
137 1 0.25 0 0.125
141 1 0.375 0 0.125
145 1 0.5 0 0.125
149 1 0.625 0 0.125
153 1 0.75 0 0.125
157 1 0.875 0 0.125
130 1 0.0625 0.0625 0.125
134 1 0.1875 0.0625 0.125
138 1 0.3125 0.0625 0.125
142 1 0.4375 0.0625 0.125
146 1 0.5625 0.0625 0.125
150 1 0.6875 0.0625 0.125
154 1 0.8125 0.0625 0.125
158 1 0.9375 0.0625 0.125
161 1 0 0.125 0.125
165 1 0.125 0.125 0.125
169 1 0.25 0.125 0.125
173 1 0.375 0.125 0.125
177 1 0.5 0.125 0.125
181 1 0.625 0.125 0.125
185 1 0.75 0.125 0.125
189 1 0.875 0.125 0.125
162 1 0.0625 0.1875 0.125
166 1 0.1875 0.1875 0.125
170 1 0.3125 0.1875 0.125
174 1 0.4375 0.1875 0.125
178 1 0.5625 0.1875 0.125
182 1 0.6875 0.1875 0.125
186 1 0.8125 0.1875 0.125
190 1 0.9375 0.1875 0.125
193 1 0 0.25 0.125
197 1 0.125 0.25 0.125
201 1 0.25 0.25 0.125
205 1 0.375 0.25 0.125
209 1 0.5 0.25 0.125
213 1 0.625 0.25 0.125
217 1 0.75 0.25 0.125
221 1 0.875 0.25 0.125
194 1 0.0625 0.3125 0.125
198 1 0.1875 0.3125 0.125
202 1 0.3125 0.3125 0.125
206 1 0.4375 0.3125 0.125
210 1 0.5625 0.3125 0.125
214 1 0.6875 0.3125 0.125
218 1 0.8125 0.3125 0.125
222 1 0.9375 0.3125 0.125
225 1 0 0.375 0.125
229 1 0.125 0.375 0.125
233 1 0.25 0.375 0.125
237 1 0.375 0.375 0.125
241 1 0.5 0.375 0.125
245 1 0.625 0.375 0.125
249 1 0.75 0.375 0.125
253 1 0.875 0.375 0.125
226 1 0.0625 0.4375 0.125
230 1 0.1875 0.4375 0.125
234 1 0.3125 0.4375 0.125
238 1 0.4375 0.4375 0.125
242 1 0.5625 0.4375 0.125
246 1 0.6875 0.4375 0.125
250 1 0.8125 0.4375 0.125
254 1 0.9375 0.4375 0.125
131 1 0.0625 0 0.1875
135 1 0.1875 0 0.1875
139 1 0.3125 0 0.1875
143 1 0.4375 0 0.1875
147 1 0.5625 0 0.1875
151 1 0.6875 0 0.1875
155 1 0.8125 0 0.1875
159 1 0.9375 0 0.1875
132 1 0 0.0625 0.1875
136 1 0.125 0.0625 0.1875
140 1 0.25 0.0625 0.1875
144 1 0.375 0.0625 0.1875
148 1 0.5 0.0625 0.1875
152 1 0.625 0.0625 0.1875
156 1 0.75 0.0625 0.1875
160 1 0.875 0.0625 0.1875
163 1 0.0625 0.125 0.1875
167 1 0.1875 0.125 0.1875
171 1 0.3125 0.125 0.1875
175 1 0.4375 0.125 0.1875
179 1 0.5625 0.125 0.1875
183 1 0.6875 0.125 0.1875
187 1 0.8125 0.125 0.1875
191 1 0.9375 0.125 0.1875
164 1 0 0.1875 0.1875
168 1 0.125 0.1875 0.1875
172 1 0.25 0.1875 0.1875
176 1 0.375 0.1875 0.1875
180 1 0.5 0.1875 0.1875
184 1 0.625 0.1875 0.1875
188 1 0.75 0.1875 0.1875
192 1 0.875 0.1875 0.1875
195 1 0.0625 0.25 0.1875
199 1 0.1875 0.25 0.1875
203 1 0.3125 0.25 0.1875
207 1 0.4375 0.25 0.1875
211 1 0.5625 0.25 0.1875
215 1 0.6875 0.25 0.1875
219 1 0.8125 0.25 0.1875
223 1 0.9375 0.25 0.1875
196 1 0 0.3125 0.1875
200 1 0.125 0.3125 0.1875
204 1 0.25 0.3125 0.1875
208 1 0.375 0.3125 0.1875
212 1 0.5 0.3125 0.1875
216 1 0.625 0.3125 0.1875
220 1 0.75 0.3125 0.1875
224 1 0.875 0.3125 0.1875
227 1 0.0625 0.375 0.1875
231 1 0.1875 0.375 0.1875
235 1 0.3125 0.375 0.1875
239 1 0.4375 0.375 0.1875
243 1 0.5625 0.375 0.1875
247 1 0.6875 0.375 0.1875
251 1 0.8125 0.375 0.1875
255 1 0.9375 0.375 0.1875
228 1 0 0.4375 0.1875
232 1 0.125 0.4375 0.1875
236 1 0.25 0.4375 0.1875
240 1 0.375 0.4375 0.1875
244 1 0.5 0.4375 0.1875
248 1 0.625 0.4375 0.1875
252 1 0.75 0.4375 0.1875
256 1 0.875 0.4375 0.1875
257 1 0 0 0.25
261 1 0.125 0 0.25
265 1 0.25 0 0.25
269 1 0.375 0 0.25
273 1 0.5 0 0.25
277 1 0.625 0 0.25
281 1 0.75 0 0.25
285 1 0.875 0 0.25
258 1 0.0625 0.0625 0.25
262 1 0.1875 0.0625 0.25
266 1 0.3125 0.0625 0.25
270 1 0.4375 0.0625 0.25
274 1 0.5625 0.0625 0.25
278 1 0.6875 0.0625 0.25
282 1 0.8125 0.0625 0.25
286 1 0.9375 0.0625 0.25
289 1 0 0.125 0.25
293 1 0.125 0.125 0.25
297 1 0.25 0.125 0.25
301 1 0.375 0.125 0.25
305 1 0.5 0.125 0.25
309 1 0.625 0.125 0.25
313 1 0.75 0.125 0.25
317 1 0.875 0.125 0.25
290 1 0.0625 0.1875 0.25
294 1 0.1875 0.1875 0.25
298 1 0.3125 0.1875 0.25
302 1 0.4375 0.1875 0.25
306 1 0.5625 0.1875 0.25
310 1 0.6875 0.1875 0.25
314 1 0.8125 0.1875 0.25
318 1 0.9375 0.1875 0.25
321 1 0 0.25 0.25
325 1 0.125 0.25 0.25
329 1 0.25 0.25 0.25
333 1 0.375 0.25 0.25
337 1 0.5 0.25 0.25
341 1 0.625 0.25 0.25
345 1 0.75 0.25 0.25
349 1 0.875 0.25 0.25
322 1 0.0625 0.3125 0.25
326 1 0.1875 0.3125 0.25
330 1 0.3125 0.3125 0.25
334 1 0.4375 0.3125 0.25
338 1 0.5625 0.3125 0.25
342 1 0.6875 0.3125 0.25
346 1 0.8125 0.3125 0.25
350 1 0.9375 0.3125 0.25
353 1 0 0.375 0.25
357 1 0.125 0.375 0.25
361 1 0.25 0.375 0.25
365 1 0.375 0.375 0.25
369 1 0.5 0.375 0.25
373 1 0.625 0.375 0.25
377 1 0.75 0.375 0.25
381 1 0.875 0.375 0.25
354 1 0.0625 0.4375 0.25
358 1 0.1875 0.4375 0.25
362 1 0.3125 0.4375 0.25
366 1 0.4375 0.4375 0.25
370 1 0.5625 0.4375 0.25
374 1 0.6875 0.4375 0.25
378 1 0.8125 0.4375 0.25
382 1 0.9375 0.4375 0.25
259 1 0.0625 0 0.3125
263 1 0.1875 0 0.3125
267 1 0.3125 0 0.3125
271 1 0.4375 0 0.3125
275 1 0.5625 0 0.3125
279 1 0.6875 0 0.3125
283 1 0.8125 0 0.3125
287 1 0.9375 0 0.3125
260 1 0 0.0625 0.3125
264 1 0.125 0.0625 0.3125
268 1 0.25 0.0625 0.3125
272 1 0.375 0.0625 0.3125
276 1 0.5 0.0625 0.3125
280 1 0.625 0.0625 0.3125
284 1 0.75 0.0625 0.3125
288 1 0.875 0.0625 0.3125
291 1 0.0625 0.125 0.3125
295 1 0.1875 0.125 0.3125
299 1 0.3125 0.125 0.3125
303 1 0.4375 0.125 0.3125
307 1 0.5625 0.125 0.3125
311 1 0.6875 0.125 0.3125
315 1 0.8125 0.125 0.3125
319 1 0.9375 0.125 0.3125
292 1 0 0.1875 0.3125
296 1 0.125 0.1875 0.3125
300 1 0.25 0.1875 0.3125
304 1 0.375 0.1875 0.3125
308 1 0.5 0.1875 0.3125
312 1 0.625 0.1875 0.3125
316 1 0.75 0.1875 0.3125
320 1 0.875 0.1875 0.3125
323 1 0.0625 0.25 0.3125
327 1 0.1875 0.25 0.3125
331 1 0.3125 0.25 0.3125
335 1 0.4375 0.25 0.3125
339 1 0.5625 0.25 0.3125
343 1 0.6875 0.25 0.3125
347 1 0.8125 0.25 0.3125
351 1 0.9375 0.25 0.3125
324 1 0 0.3125 0.3125
328 1 0.125 0.3125 0.3125
332 1 0.25 0.3125 0.3125
336 1 0.375 0.3125 0.3125
340 1 0.5 0.3125 0.3125
344 1 0.625 0.3125 0.3125
348 1 0.75 0.3125 0.3125
352 1 0.875 0.3125 0.3125
355 1 0.0625 0.375 0.3125
359 1 0.1875 0.375 0.3125
363 1 0.3125 0.375 0.3125
367 1 0.4375 0.375 0.3125
371 1 0.5625 0.375 0.3125
375 1 0.6875 0.375 0.3125
379 1 0.8125 0.375 0.3125
383 1 0.9375 0.375 0.3125
356 1 0 0.4375 0.3125
360 1 0.125 0.4375 0.3125
364 1 0.25 0.4375 0.3125
368 1 0.375 0.4375 0.3125
372 1 0.5 0.4375 0.3125
376 1 0.625 0.4375 0.3125
380 1 0.75 0.4375 0.3125
384 1 0.875 0.4375 0.3125
385 1 0 0 0.375
387 1 0.125 0 0.375
389 1 0.25 0 0.375
391 1 0.375 0 0.375
393 1 0.5 0 0.375
395 1 0.625 0 0.375
397 1 0.75 0 0.375
399 1 0.875 0 0.375
386 1 0.0625 0.0625 0.375
388 1 0.1875 0.0625 0.375
390 1 0.3125 0.0625 0.375
392 1 0.4375 0.0625 0.375
394 1 0.5625 0.0625 0.375
396 1 0.6875 0.0625 0.375
398 1 0.8125 0.0625 0.375
400 1 0.9375 0.0625 0.375
401 1 0 0.125 0.375
403 1 0.125 0.125 0.375
405 1 0.25 0.125 0.375
407 1 0.375 0.125 0.375
409 1 0.5 0.125 0.375
411 1 0.625 0.125 0.375
413 1 0.75 0.125 0.375
415 1 0.875 0.125 0.375
402 1 0.0625 0.1875 0.375
404 1 0.1875 0.1875 0.375
406 1 0.3125 0.1875 0.375
408 1 0.4375 0.1875 0.375
410 1 0.5625 0.1875 0.375
412 1 0.6875 0.1875 0.375
414 1 0.8125 0.1875 0.375
416 1 0.9375 0.1875 0.375
417 1 0 0.25 0.375
419 1 0.125 0.25 0.375
421 1 0.25 0.25 0.375
423 1 0.375 0.25 0.375
425 1 0.5 0.25 0.375
427 1 0.625 0.25 0.375
429 1 0.75 0.25 0.375
431 1 0.875 0.25 0.375
418 1 0.0625 0.3125 0.375
420 1 0.1875 0.3125 0.375
422 1 0.3125 0.3125 0.375
424 1 0.4375 0.3125 0.375
426 1 0.5625 0.3125 0.375
428 1 0.6875 0.3125 0.375
430 1 0.8125 0.3125 0.375
432 1 0.9375 0.3125 0.375
433 1 0 0.375 0.375
435 1 0.125 0.375 0.375
437 1 0.25 0.375 0.375
439 1 0.375 0.375 0.375
441 1 0.5 0.375 0.375
443 1 0.625 0.375 0.375
445 1 0.75 0.375 0.375
447 1 0.875 0.375 0.375
434 1 0.0625 0.4375 0.375
436 1 0.1875 0.4375 0.375
438 1 0.3125 0.4375 0.375
440 1 0.4375 0.4375 0.375
442 1 0.5625 0.4375 0.375
444 1 0.6875 0.4375 0.375
446 1 0.8125 0.4375 0.375
448 1 0.9375 0.4375 0.375
449 1 0.0625 0 0.4375
451 1 0.1875 0 0.4375
453 1 0.3125 0 0.4375
455 1 0.4375 0 0.4375
457 1 0.5625 0 0.4375
459 1 0.6875 0 0.4375
461 1 0.8125 0 0.4375
463 1 0.9375 0 0.4375
450 1 0 0.0625 0.4375
452 1 0.125 0.0625 0.4375
454 1 0.25 0.0625 0.4375
456 1 0.375 0.0625 0.4375
458 1 0.5 0.0625 0.4375
460 1 0.625 0.0625 0.4375
462 1 0.75 0.0625 0.4375
464 1 0.875 0.0625 0.4375
465 1 0.0625 0.125 0.4375
467 1 0.1875 0.125 0.4375
469 1 0.3125 0.125 0.4375
471 1 0.4375 0.125 0.4375
473 1 0.5625 0.125 0.4375
475 1 0.6875 0.125 0.4375
477 1 0.8125 0.125 0.4375
479 1 0.9375 0.125 0.4375
466 1 0 0.1875 0.4375
468 1 0.125 0.1875 0.4375
470 1 0.25 0.1875 0.4375
472 1 0.375 0.1875 0.4375
474 1 0.5 0.1875 0.4375
476 1 0.625 0.1875 0.4375
478 1 0.75 0.1875 0.4375
480 1 0.875 0.1875 0.4375
481 1 0.0625 0.25 0.4375
483 1 0.1875 0.25 0.4375
485 1 0.3125 0.25 0.4375
487 1 0.4375 0.25 0.4375
489 1 0.5625 0.25 0.4375
491 1 0.6875 0.25 0.4375
493 1 0.8125 0.25 0.4375
495 1 0.9375 0.25 0.4375
482 1 0 0.3125 0.4375
484 1 0.125 0.3125 0.4375
486 1 0.25 0.3125 0.4375
488 1 0.375 0.3125 0.4375
490 1 0.5 0.3125 0.4375
492 1 0.625 0.3125 0.4375
494 1 0.75 0.3125 0.4375
496 1 0.875 0.3125 0.4375
497 1 0.0625 0.375 0.4375
499 1 0.1875 0.375 0.4375
501 1 0.3125 0.375 0.4375
503 1 0.4375 0.375 0.4375
505 1 0.5625 0.375 0.4375
507 1 0.6875 0.375 0.4375
509 1 0.8125 0.375 0.4375
511 1 0.9375 0.375 0.4375
498 1 0 0.4375 0.4375
500 1 0.125 0.4375 0.4375
502 1 0.25 0.4375 0.4375
504 1 0.375 0.4375 0.4375
506 1 0.5 0.4375 0.4375
508 1 0.625 0.4375 0.4375
510 1 0.75 0.4375 0.4375
512 1 0.875 0.4375 0.4375
513 1 0 0 0.5
517 1 0.125 0 0.5
521 1 0.25 0 0.5
525 1 0.375 0 0.5
529 1 0.5 0 0.5
533 1 0.625 0 0.5
537 1 0.75 0 0.5
541 1 0.875 0 0.5
514 1 0.0625 0.0625 0.5
518 1 0.1875 0.0625 0.5
522 1 0.3125 0.0625 0.5
526 1 0.4375 0.0625 0.5
530 1 0.5625 0.0625 0.5
534 1 0.6875 0.0625 0.5
538 1 0.8125 0.0625 0.5
542 1 0.9375 0.0625 0.5
545 1 0 0.125 0.5
549 1 0.125 0.125 0.5
553 1 0.25 0.125 0.5
557 1 0.375 0.125 0.5
561 1 0.5 0.125 0.5
565 1 0.625 0.125 0.5
569 1 0.75 0.125 0.5
573 1 0.875 0.125 0.5
546 1 0.0625 0.1875 0.5
550 1 0.1875 0.1875 0.5
554 1 0.3125 0.1875 0.5
558 1 0.4375 0.1875 0.5
562 1 0.5625 0.1875 0.5
566 1 0.6875 0.1875 0.5
570 1 0.8125 0.1875 0.5
574 1 0.9375 0.1875 0.5
577 1 0 0.25 0.5
581 1 0.125 0.25 0.5
585 1 0.25 0.25 0.5
589 1 0.375 0.25 0.5
593 1 0.5 0.25 0.5
597 1 0.625 0.25 0.5
601 1 0.75 0.25 0.5
605 1 0.875 0.25 0.5
578 1 0.0625 0.3125 0.5
582 1 0.1875 0.3125 0.5
586 1 0.3125 0.3125 0.5
590 1 0.4375 0.3125 0.5
594 1 0.5625 0.3125 0.5
598 1 0.6875 0.3125 0.5
602 1 0.8125 0.3125 0.5
606 1 0.9375 0.3125 0.5
609 1 0 0.375 0.5
613 1 0.125 0.375 0.5
617 1 0.25 0.375 0.5
621 1 0.375 0.375 0.5
625 1 0.5 0.375 0.5
629 1 0.625 0.375 0.5
633 1 0.75 0.375 0.5
637 1 0.875 0.375 0.5
610 1 0.0625 0.4375 0.5
614 1 0.1875 0.4375 0.5
618 1 0.3125 0.4375 0.5
622 1 0.4375 0.4375 0.5
626 1 0.5625 0.4375 0.5
630 1 0.6875 0.4375 0.5
634 1 0.8125 0.4375 0.5
638 1 0.9375 0.4375 0.5
515 1 0.0625 0 0.5625
519 1 0.1875 0 0.5625
523 1 0.3125 0 0.5625
527 1 0.4375 0 0.5625
531 1 0.5625 0 0.5625
535 1 0.6875 0 0.5625
539 1 0.8125 0 0.5625
543 1 0.9375 0 0.5625
516 1 0 0.0625 0.5625
520 1 0.125 0.0625 0.5625
524 1 0.25 0.0625 0.5625
528 1 0.375 0.0625 0.5625
532 1 0.5 0.0625 0.5625
536 1 0.625 0.0625 0.5625
540 1 0.75 0.0625 0.5625
544 1 0.875 0.0625 0.5625
547 1 0.0625 0.125 0.5625
551 1 0.1875 0.125 0.5625
555 1 0.3125 0.125 0.5625
559 1 0.4375 0.125 0.5625
563 1 0.5625 0.125 0.5625
567 1 0.6875 0.125 0.5625
571 1 0.8125 0.125 0.5625
575 1 0.9375 0.125 0.5625
548 1 0 0.1875 0.5625
552 1 0.125 0.1875 0.5625
556 1 0.25 0.1875 0.5625
560 1 0.375 0.1875 0.5625
564 1 0.5 0.1875 0.5625
568 1 0.625 0.1875 0.5625
572 1 0.75 0.1875 0.5625
576 1 0.875 0.1875 0.5625
579 1 0.0625 0.25 0.5625
583 1 0.1875 0.25 0.5625
587 1 0.3125 0.25 0.5625
591 1 0.4375 0.25 0.5625
595 1 0.5625 0.25 0.5625
599 1 0.6875 0.25 0.5625
603 1 0.8125 0.25 0.5625
607 1 0.9375 0.25 0.5625
580 1 0 0.3125 0.5625
584 1 0.125 0.3125 0.5625
588 1 0.25 0.3125 0.5625
592 1 0.375 0.3125 0.5625
596 1 0.5 0.3125 0.5625
600 1 0.625 0.3125 0.5625
604 1 0.75 0.3125 0.5625
608 1 0.875 0.3125 0.5625
611 1 0.0625 0.375 0.5625
615 1 0.1875 0.375 0.5625
619 1 0.3125 0.375 0.5625
623 1 0.4375 0.375 0.5625
627 1 0.5625 0.375 0.5625
631 1 0.6875 0.375 0.5625
635 1 0.8125 0.375 0.5625
639 1 0.9375 0.375 0.5625
612 1 0 0.4375 0.5625
616 1 0.125 0.4375 0.5625
620 1 0.25 0.4375 0.5625
624 1 0.375 0.4375 0.5625
628 1 0.5 0.4375 0.5625
632 1 0.625 0.4375 0.5625
636 1 0.75 0.4375 0.5625
640 1 0.875 0.4375 0.5625
641 1 0 0 0.625
645 1 0.125 0 0.625
649 1 0.25 0 0.625
653 1 0.375 0 0.625
657 1 0.5 0 0.625
661 1 0.625 0 0.625
665 1 0.75 0 0.625
669 1 0.875 0 0.625
642 1 0.0625 0.0625 0.625
646 1 0.1875 0.0625 0.625
650 1 0.3125 0.0625 0.625
654 1 0.4375 0.0625 0.625
658 1 0.5625 0.0625 0.625
662 1 0.6875 0.0625 0.625
666 1 0.8125 0.0625 0.625
670 1 0.9375 0.0625 0.625
673 1 0 0.125 0.625
677 1 0.125 0.125 0.625
681 1 0.25 0.125 0.625
685 1 0.375 0.125 0.625
689 1 0.5 0.125 0.625
693 1 0.625 0.125 0.625
697 1 0.75 0.125 0.625
701 1 0.875 0.125 0.625
674 1 0.0625 0.1875 0.625
678 1 0.1875 0.1875 0.625
682 1 0.3125 0.1875 0.625
686 1 0.4375 0.1875 0.625
690 1 0.5625 0.1875 0.625
694 1 0.6875 0.1875 0.625
698 1 0.8125 0.1875 0.625
702 1 0.9375 0.1875 0.625
705 1 0 0.25 0.625
709 1 0.125 0.25 0.625
713 1 0.25 0.25 0.625
717 1 0.375 0.25 0.625
721 1 0.5 0.25 0.625
725 1 0.625 0.25 0.625
729 1 0.75 0.25 0.625
733 1 0.875 0.25 0.625
706 1 0.0625 0.3125 0.625
710 1 0.1875 0.3125 0.625
714 1 0.3125 0.3125 0.625
718 1 0.4375 0.3125 0.625
722 1 0.5625 0.3125 0.625
726 1 0.6875 0.3125 0.625
730 1 0.8125 0.3125 0.625
734 1 0.9375 0.3125 0.625
737 1 0 0.375 0.625
741 1 0.125 0.375 0.625
745 1 0.25 0.375 0.625
749 1 0.375 0.375 0.625
753 1 0.5 0.375 0.625
757 1 0.625 0.375 0.625
761 1 0.75 0.375 0.625
765 1 0.875 0.375 0.625
738 1 0.0625 0.4375 0.625
742 1 0.1875 0.4375 0.625
746 1 0.3125 0.4375 0.625
750 1 0.4375 0.4375 0.625
754 1 0.5625 0.4375 0.625
758 1 0.6875 0.4375 0.625
762 1 0.8125 0.4375 0.625
766 1 0.9375 0.4375 0.625
643 1 0.0625 0 0.6875
647 1 0.1875 0 0.6875
651 1 0.3125 0 0.6875
655 1 0.4375 0 0.6875
659 1 0.5625 0 0.6875
663 1 0.6875 0 0.6875
667 1 0.8125 0 0.6875
671 1 0.9375 0 0.6875
644 1 0 0.0625 0.6875
648 1 0.125 0.0625 0.6875
652 1 0.25 0.0625 0.6875
656 1 0.375 0.0625 0.6875
660 1 0.5 0.0625 0.6875
664 1 0.625 0.0625 0.6875
668 1 0.75 0.0625 0.6875
672 1 0.875 0.0625 0.6875
675 1 0.0625 0.125 0.6875
679 1 0.1875 0.125 0.6875
683 1 0.3125 0.125 0.6875
687 1 0.4375 0.125 0.6875
691 1 0.5625 0.125 0.6875
695 1 0.6875 0.125 0.6875
699 1 0.8125 0.125 0.6875
703 1 0.9375 0.125 0.6875
676 1 0 0.1875 0.6875
680 1 0.125 0.1875 0.6875
684 1 0.25 0.1875 0.6875
688 1 0.375 0.1875 0.6875
692 1 0.5 0.1875 0.6875
696 1 0.625 0.1875 0.6875
700 1 0.75 0.1875 0.6875
704 1 0.875 0.1875 0.6875
707 1 0.0625 0.25 0.6875
711 1 0.1875 0.25 0.6875
715 1 0.3125 0.25 0.6875
719 1 0.4375 0.25 0.6875
723 1 0.5625 0.25 0.6875
727 1 0.6875 0.25 0.6875
731 1 0.8125 0.25 0.6875
735 1 0.9375 0.25 0.6875
708 1 0 0.3125 0.6875
712 1 0.125 0.3125 0.6875
716 1 0.25 0.3125 0.6875
720 1 0.375 0.3125 0.6875
724 1 0.5 0.3125 0.6875
728 1 0.625 0.3125 0.6875
732 1 0.75 0.3125 0.6875
736 1 0.875 0.3125 0.6875
739 1 0.0625 0.375 0.6875
743 1 0.1875 0.375 0.6875
747 1 0.3125 0.375 0.6875
751 1 0.4375 0.375 0.6875
755 1 0.5625 0.375 0.6875
759 1 0.6875 0.375 0.6875
763 1 0.8125 0.375 0.6875
767 1 0.9375 0.375 0.6875
740 1 0 0.4375 0.6875
744 1 0.125 0.4375 0.6875
748 1 0.25 0.4375 0.6875
752 1 0.375 0.4375 0.6875
756 1 0.5 0.4375 0.6875
760 1 0.625 0.4375 0.6875
764 1 0.75 0.4375 0.6875
768 1 0.875 0.4375 0.6875
769 1 0 0 0.75
771 1 0.125 0 0.75
773 1 0.25 0 0.75
775 1 0.375 0 0.75
777 1 0.5 0 0.75
779 1 0.625 0 0.75
781 1 0.75 0 0.75
783 1 0.875 0 0.75
770 1 0.0625 0.0625 0.75
772 1 0.1875 0.0625 0.75
774 1 0.3125 0.0625 0.75
776 1 0.4375 0.0625 0.75
778 1 0.5625 0.0625 0.75
780 1 0.6875 0.0625 0.75
782 1 0.8125 0.0625 0.75
784 1 0.9375 0.0625 0.75
785 1 0 0.125 0.75
787 1 0.125 0.125 0.75
789 1 0.25 0.125 0.75
791 1 0.375 0.125 0.75
793 1 0.5 0.125 0.75
795 1 0.625 0.125 0.75
797 1 0.75 0.125 0.75
799 1 0.875 0.125 0.75
786 1 0.0625 0.1875 0.75
788 1 0.1875 0.1875 0.75
790 1 0.3125 0.1875 0.75
792 1 0.4375 0.1875 0.75
794 1 0.5625 0.1875 0.75
796 1 0.6875 0.1875 0.75
798 1 0.8125 0.1875 0.75
800 1 0.9375 0.1875 0.75
801 1 0 0.25 0.75
803 1 0.125 0.25 0.75
805 1 0.25 0.25 0.75
807 1 0.375 0.25 0.75
809 1 0.5 0.25 0.75
811 1 0.625 0.25 0.75
813 1 0.75 0.25 0.75
815 1 0.875 0.25 0.75
802 1 0.0625 0.3125 0.75
804 1 0.1875 0.3125 0.75
806 1 0.3125 0.3125 0.75
808 1 0.4375 0.3125 0.75
810 1 0.5625 0.3125 0.75
812 1 0.6875 0.3125 0.75
814 1 0.8125 0.3125 0.75
816 1 0.9375 0.3125 0.75
817 1 0 0.375 0.75
819 1 0.125 0.375 0.75
821 1 0.25 0.375 0.75
823 1 0.375 0.375 0.75
825 1 0.5 0.375 0.75
827 1 0.625 0.375 0.75
829 1 0.75 0.375 0.75
831 1 0.875 0.375 0.75
818 1 0.0625 0.4375 0.75
820 1 0.1875 0.4375 0.75
822 1 0.3125 0.4375 0.75
824 1 0.4375 0.4375 0.75
826 1 0.5625 0.4375 0.75
828 1 0.6875 0.4375 0.75
830 1 0.8125 0.4375 0.75
832 1 0.9375 0.4375 0.75
833 1 0.0625 0 0.8125
835 1 0.1875 0 0.8125
837 1 0.3125 0 0.8125
839 1 0.4375 0 0.8125
841 1 0.5625 0 0.8125
843 1 0.6875 0 0.8125
845 1 0.8125 0 0.8125
847 1 0.9375 0 0.8125
834 1 0 0.0625 0.8125
836 1 0.125 0.0625 0.8125
838 1 0.25 0.0625 0.8125
840 1 0.375 0.0625 0.8125
842 1 0.5 0.0625 0.8125
844 1 0.625 0.0625 0.8125
846 1 0.75 0.0625 0.8125
848 1 0.875 0.0625 0.8125
849 1 0.0625 0.125 0.8125
851 1 0.1875 0.125 0.8125
853 1 0.3125 0.125 0.8125
855 1 0.4375 0.125 0.8125
857 1 0.5625 0.125 0.8125
859 1 0.6875 0.125 0.8125
861 1 0.8125 0.125 0.8125
863 1 0.9375 0.125 0.8125
850 1 0 0.1875 0.8125
852 1 0.125 0.1875 0.8125
854 1 0.25 0.1875 0.8125
856 1 0.375 0.1875 0.8125
858 1 0.5 0.1875 0.8125
860 1 0.625 0.1875 0.8125
862 1 0.75 0.1875 0.8125
864 1 0.875 0.1875 0.8125
865 1 0.0625 0.25 0.8125
867 1 0.1875 0.25 0.8125
869 1 0.3125 0.25 0.8125
871 1 0.4375 0.25 0.8125
873 1 0.5625 0.25 0.8125
875 1 0.6875 0.25 0.8125
877 1 0.8125 0.25 0.8125
879 1 0.9375 0.25 0.8125
866 1 0 0.3125 0.8125
868 1 0.125 0.3125 0.8125
870 1 0.25 0.3125 0.8125
872 1 0.375 0.3125 0.8125
874 1 0.5 0.3125 0.8125
876 1 0.625 0.3125 0.8125
878 1 0.75 0.3125 0.8125
880 1 0.875 0.3125 0.8125
881 1 0.0625 0.375 0.8125
883 1 0.1875 0.375 0.8125
885 1 0.3125 0.375 0.8125
887 1 0.4375 0.375 0.8125
889 1 0.5625 0.375 0.8125
891 1 0.6875 0.375 0.8125
893 1 0.8125 0.375 0.8125
895 1 0.9375 0.375 0.8125
882 1 0 0.4375 0.8125
884 1 0.125 0.4375 0.8125
886 1 0.25 0.4375 0.8125
888 1 0.375 0.4375 0.8125
890 1 0.5 0.4375 0.8125
892 1 0.625 0.4375 0.8125
894 1 0.75 0.4375 0.8125
896 1 0.875 0.4375 0.8125
897 1 0 0 0.875
901 1 0.125 0 0.875
905 1 0.25 0 0.875
909 1 0.375 0 0.875
913 1 0.5 0 0.875
917 1 0.625 0 0.875
921 1 0.75 0 0.875
925 1 0.875 0 0.875
898 1 0.0625 0.0625 0.875
902 1 0.1875 0.0625 0.875
906 1 0.3125 0.0625 0.875
910 1 0.4375 0.0625 0.875
914 1 0.5625 0.0625 0.875
918 1 0.6875 0.0625 0.875
922 1 0.8125 0.0625 0.875
926 1 0.9375 0.0625 0.875
929 1 0 0.125 0.875
933 1 0.125 0.125 0.875
937 1 0.25 0.125 0.875
941 1 0.375 0.125 0.875
945 1 0.5 0.125 0.875
949 1 0.625 0.125 0.875
953 1 0.75 0.125 0.875
957 1 0.875 0.125 0.875
930 1 0.0625 0.1875 0.875
934 1 0.1875 0.1875 0.875
938 1 0.3125 0.1875 0.875
942 1 0.4375 0.1875 0.875
946 1 0.5625 0.1875 0.875
950 1 0.6875 0.1875 0.875
954 1 0.8125 0.1875 0.875
958 1 0.9375 0.1875 0.875
961 1 0 0.25 0.875
965 1 0.125 0.25 0.875
969 1 0.25 0.25 0.875
973 1 0.375 0.25 0.875
977 1 0.5 0.25 0.875
981 1 0.625 0.25 0.875
985 1 0.75 0.25 0.875
989 1 0.875 0.25 0.875
962 1 0.0625 0.3125 0.875
966 1 0.1875 0.3125 0.875
970 1 0.3125 0.3125 0.875
974 1 0.4375 0.3125 0.875
978 1 0.5625 0.3125 0.875
982 1 0.6875 0.3125 0.875
986 1 0.8125 0.3125 0.875
990 1 0.9375 0.3125 0.875
993 1 0 0.375 0.875
997 1 0.125 0.375 0.875
1001 1 0.25 0.375 0.875
1005 1 0.375 0.375 0.875
1009 1 0.5 0.375 0.875
1013 1 0.625 0.375 0.875
1017 1 0.75 0.375 0.875
1021 1 0.875 0.375 0.875
994 1 0.0625 0.4375 0.875
998 1 0.1875 0.4375 0.875
1002 1 0.3125 0.4375 0.875
1006 1 0.4375 0.4375 0.875
1010 1 0.5625 0.4375 0.875
1014 1 0.6875 0.4375 0.875
1018 1 0.8125 0.4375 0.875
1022 1 0.9375 0.4375 0.875
899 1 0.0625 0 0.9375
903 1 0.1875 0 0.9375
907 1 0.3125 0 0.9375
911 1 0.4375 0 0.9375
915 1 0.5625 0 0.9375
919 1 0.6875 0 0.9375
923 1 0.8125 0 0.9375
927 1 0.9375 0 0.9375
900 1 0 0.0625 0.9375
904 1 0.125 0.0625 0.9375
908 1 0.25 0.0625 0.9375
912 1 0.375 0.0625 0.9375
916 1 0.5 0.0625 0.9375
920 1 0.625 0.0625 0.9375
924 1 0.75 0.0625 0.9375
928 1 0.875 0.0625 0.9375
931 1 0.0625 0.125 0.9375
935 1 0.1875 0.125 0.9375
939 1 0.3125 0.125 0.9375
943 1 0.4375 0.125 0.9375
947 1 0.5625 0.125 0.9375
951 1 0.6875 0.125 0.9375
955 1 0.8125 0.125 0.9375
959 1 0.9375 0.125 0.9375
932 1 0 0.1875 0.9375
936 1 0.125 0.1875 0.9375
940 1 0.25 0.1875 0.9375
944 1 0.375 0.1875 0.9375
948 1 0.5 0.1875 0.9375
952 1 0.625 0.1875 0.9375
956 1 0.75 0.1875 0.9375
960 1 0.875 0.1875 0.9375
963 1 0.0625 0.25 0.9375
967 1 0.1875 0.25 0.9375
971 1 0.3125 0.25 0.9375
975 1 0.4375 0.25 0.9375
979 1 0.5625 0.25 0.9375
983 1 0.6875 0.25 0.9375
987 1 0.8125 0.25 0.9375
991 1 0.9375 0.25 0.9375
964 1 0 0.3125 0.9375
968 1 0.125 0.3125 0.9375
972 1 0.25 0.3125 0.9375
976 1 0.375 0.3125 0.9375
980 1 0.5 0.3125 0.9375
984 1 0.625 0.3125 0.9375
988 1 0.75 0.3125 0.9375
992 1 0.875 0.3125 0.9375
995 1 0.0625 0.375 0.9375
999 1 0.1875 0.375 0.9375
1003 1 0.3125 0.375 0.9375
1007 1 0.4375 0.375 0.9375
1011 1 0.5625 0.375 0.9375
1015 1 0.6875 0.375 0.9375
1019 1 0.8125 0.375 0.9375
1023 1 0.9375 0.375 0.9375
996 1 0 0.4375 0.9375
1000 1 0.125 0.4375 0.9375
1004 1 0.25 0.4375 0.9375
1008 1 0.375 0.4375 0.9375
1012 1 0.5 0.4375 0.9375
1016 1 0.625 0.4375 0.9375
1020 1 0.75 0.4375 0.9375
1024 1 0.875 0.4375 0.9375
1025 1 0 0.5 0
1027 1 0.0625 0.5 0.0625
1029 1 0.125 0.5 0
1031 1 0.1875 0.5 0.0625
1033 1 0.25 0.5 0
1035 1 0.3125 0.5 0.0625
1037 1 0.375 0.5 0
1039 1 0.4375 0.5 0.0625
1041 1 0.5 0.5 0
1043 1 0.5625 0.5 0.0625
1045 1 0.625 0.5 0
1047 1 0.6875 0.5 0.0625
1049 1 0.75 0.5 0
1051 1 0.8125 0.5 0.0625
1053 1 0.875 0.5 0
1055 1 0.9375 0.5 0.0625
1028 1 0 0.5625 0.0625
1026 1 0.0625 0.5625 0
1032 1 0.125 0.5625 0.0625
1030 1 0.1875 0.5625 0
1036 1 0.25 0.5625 0.0625
1034 1 0.3125 0.5625 0
1040 1 0.375 0.5625 0.0625
1038 1 0.4375 0.5625 0
1044 1 0.5 0.5625 0.0625
1042 1 0.5625 0.5625 0
1048 1 0.625 0.5625 0.0625
1046 1 0.6875 0.5625 0
1052 1 0.75 0.5625 0.0625
1050 1 0.8125 0.5625 0
1056 1 0.875 0.5625 0.0625
1054 1 0.9375 0.5625 0
1057 1 0 0.625 0
1059 1 0.0625 0.625 0.0625
1061 1 0.125 0.625 0
1063 1 0.1875 0.625 0.0625
1065 1 0.25 0.625 0
1067 1 0.3125 0.625 0.0625
1069 1 0.375 0.625 0
1071 1 0.4375 0.625 0.0625
1073 1 0.5 0.625 0
1075 1 0.5625 0.625 0.0625
1077 1 0.625 0.625 0
1079 1 0.6875 0.625 0.0625
1081 1 0.75 0.625 0
1083 1 0.8125 0.625 0.0625
1085 1 0.875 0.625 0
1087 1 0.9375 0.625 0.0625
1060 1 0 0.6875 0.0625
1058 1 0.0625 0.6875 0
1064 1 0.125 0.6875 0.0625
1062 1 0.1875 0.6875 0
1068 1 0.25 0.6875 0.0625
1066 1 0.3125 0.6875 0
1072 1 0.375 0.6875 0.0625
1070 1 0.4375 0.6875 0
1076 1 0.5 0.6875 0.0625
1074 1 0.5625 0.6875 0
1080 1 0.625 0.6875 0.0625
1078 1 0.6875 0.6875 0
1084 1 0.75 0.6875 0.0625
1082 1 0.8125 0.6875 0
1088 1 0.875 0.6875 0.0625
1086 1 0.9375 0.6875 0
1089 1 0 0.75 0
1091 1 0.0625 0.75 0.0625
1093 1 0.125 0.75 0
1095 1 0.1875 0.75 0.0625
1097 1 0.25 0.75 0
1099 1 0.3125 0.75 0.0625
1101 1 0.375 0.75 0
1103 1 0.4375 0.75 0.0625
1105 1 0.5 0.75 0
1107 1 0.5625 0.75 0.0625
1109 1 0.625 0.75 0
1111 1 0.6875 0.75 0.0625
1113 1 0.75 0.75 0
1115 1 0.8125 0.75 0.0625
1117 1 0.875 0.75 0
1119 1 0.9375 0.75 0.0625
1092 1 0 0.8125 0.0625
1090 1 0.0625 0.8125 0
1096 1 0.125 0.8125 0.0625
1094 1 0.1875 0.8125 0
1100 1 0.25 0.8125 0.0625
1098 1 0.3125 0.8125 0
1104 1 0.375 0.8125 0.0625
1102 1 0.4375 0.8125 0
1108 1 0.5 0.8125 0.0625
1106 1 0.5625 0.8125 0
1112 1 0.625 0.8125 0.0625
1110 1 0.6875 0.8125 0
1116 1 0.75 0.8125 0.0625
1114 1 0.8125 0.8125 0
1120 1 0.875 0.8125 0.0625
1118 1 0.9375 0.8125 0
1121 1 0 0.875 0
1123 1 0.0625 0.875 0.0625
1125 1 0.125 0.875 0
1127 1 0.1875 0.875 0.0625
1129 1 0.25 0.875 0
1131 1 0.3125 0.875 0.0625
1133 1 0.375 0.875 0
1135 1 0.4375 0.875 0.0625
1137 1 0.5 0.875 0
1139 1 0.5625 0.875 0.0625
1141 1 0.625 0.875 0
1143 1 0.6875 0.875 0.0625
1145 1 0.75 0.875 0
1147 1 0.8125 0.875 0.0625
1149 1 0.875 0.875 0
1151 1 0.9375 0.875 0.0625
1124 1 0 0.9375 0.0625
1122 1 0.0625 0.9375 0
1128 1 0.125 0.9375 0.0625
1126 1 0.1875 0.9375 0
1132 1 0.25 0.9375 0.0625
1130 1 0.3125 0.9375 0
1136 1 0.375 0.9375 0.0625
1134 1 0.4375 0.9375 0
1140 1 0.5 0.9375 0.0625
1138 1 0.5625 0.9375 0
1144 1 0.625 0.9375 0.0625
1142 1 0.6875 0.9375 0
1148 1 0.75 0.9375 0.0625
1146 1 0.8125 0.9375 0
1152 1 0.875 0.9375 0.0625
1150 1 0.9375 0.9375 0
1153 1 0 0.5 0.125
1157 1 0.125 0.5 0.125
1161 1 0.25 0.5 0.125
1165 1 0.375 0.5 0.125
1169 1 0.5 0.5 0.125
1173 1 0.625 0.5 0.125
1177 1 0.75 0.5 0.125
1181 1 0.875 0.5 0.125
1154 1 0.0625 0.5625 0.125
1158 1 0.1875 0.5625 0.125
1162 1 0.3125 0.5625 0.125
1166 1 0.4375 0.5625 0.125
1170 1 0.5625 0.5625 0.125
1174 1 0.6875 0.5625 0.125
1178 1 0.8125 0.5625 0.125
1182 1 0.9375 0.5625 0.125
1185 1 0 0.625 0.125
1189 1 0.125 0.625 0.125
1193 1 0.25 0.625 0.125
1197 1 0.375 0.625 0.125
1201 1 0.5 0.625 0.125
1205 1 0.625 0.625 0.125
1209 1 0.75 0.625 0.125
1213 1 0.875 0.625 0.125
1186 1 0.0625 0.6875 0.125
1190 1 0.1875 0.6875 0.125
1194 1 0.3125 0.6875 0.125
1198 1 0.4375 0.6875 0.125
1202 1 0.5625 0.6875 0.125
1206 1 0.6875 0.6875 0.125
1210 1 0.8125 0.6875 0.125
1214 1 0.9375 0.6875 0.125
1217 1 0 0.75 0.125
1221 1 0.125 0.75 0.125
1225 1 0.25 0.75 0.125
1229 1 0.375 0.75 0.125
1233 1 0.5 0.75 0.125
1237 1 0.625 0.75 0.125
1241 1 0.75 0.75 0.125
1245 1 0.875 0.75 0.125
1218 1 0.0625 0.8125 0.125
1222 1 0.1875 0.8125 0.125
1226 1 0.3125 0.8125 0.125
1230 1 0.4375 0.8125 0.125
1234 1 0.5625 0.8125 0.125
1238 1 0.6875 0.8125 0.125
1242 1 0.8125 0.8125 0.125
1246 1 0.9375 0.8125 0.125
1249 1 0 0.875 0.125
1253 1 0.125 0.875 0.125
1257 1 0.25 0.875 0.125
1261 1 0.375 0.875 0.125
1265 1 0.5 0.875 0.125
1269 1 0.625 0.875 0.125
1273 1 0.75 0.875 0.125
1277 1 0.875 0.875 0.125
1250 1 0.0625 0.9375 0.125
1254 1 0.1875 0.9375 0.125
1258 1 0.3125 0.9375 0.125
1262 1 0.4375 0.9375 0.125
1266 1 0.5625 0.9375 0.125
1270 1 0.6875 0.9375 0.125
1274 1 0.8125 0.9375 0.125
1278 1 0.9375 0.9375 0.125
1155 1 0.0625 0.5 0.1875
1159 1 0.1875 0.5 0.1875
1163 1 0.3125 0.5 0.1875
1167 1 0.4375 0.5 0.1875
1171 1 0.5625 0.5 0.1875
1175 1 0.6875 0.5 0.1875
1179 1 0.8125 0.5 0.1875
1183 1 0.9375 0.5 0.1875
1156 1 0 0.5625 0.1875
1160 1 0.125 0.5625 0.1875
1164 1 0.25 0.5625 0.1875
1168 1 0.375 0.5625 0.1875
1172 1 0.5 0.5625 0.1875
1176 1 0.625 0.5625 0.1875
1180 1 0.75 0.5625 0.1875
1184 1 0.875 0.5625 0.1875
1187 1 0.0625 0.625 0.1875
1191 1 0.1875 0.625 0.1875
1195 1 0.3125 0.625 0.1875
1199 1 0.4375 0.625 0.1875
1203 1 0.5625 0.625 0.1875
1207 1 0.6875 0.625 0.1875
1211 1 0.8125 0.625 0.1875
1215 1 0.9375 0.625 0.1875
1188 1 0 0.6875 0.1875
1192 1 0.125 0.6875 0.1875
1196 1 0.25 0.6875 0.1875
1200 1 0.375 0.6875 0.1875
1204 1 0.5 0.6875 0.1875